version 3
run Sched1-0-20250314-14:32:15-11128
attr configname Sched1
attr datetime 20250314-14:32:15
attr datetimef 20250314-143215
attr experiment Sched1
attr inifile omnetpp.ini
attr iterationvars ""
attr iterationvarsd ""
attr iterationvarsf ""
attr measurement ""
attr network RadioSch2
attr processid 11128
attr repetition 0
attr replication #0
attr resultdir results
attr runnumber 0
attr seedset 0
config description "low job arrival rate"
config *.usersCount 8
config *.scheduler.channels 15
config **.user[*].generator.sendIaTime 0.2ms
config **.user[*].generator.networkLoad 0.7
config **.user[*].generator.packetsPerUser 10
config **.user[*].generator.channels 15
config **.user[*].generator.usersCount 8
config **.user[*].generator.MAX_Sim 10s
config **.user[*].generator.generatorPeriod 50ms
config network RadioSch2
config sim-time-limit 100h
config cpu-time-limit 300s

vector 0 RadioSch2.sink userLifetime0:vector ETV
attr recordingmode vector
attr source lifetime:user0
attr title "Packet lifetime for user 0"
vector 1 RadioSch2.sink userLifetime1:vector ETV
attr recordingmode vector
attr source lifetime:user1
attr title "Packet lifetime for user 1"
vector 2 RadioSch2.sink userLifetime2:vector ETV
attr recordingmode vector
attr source lifetime:user2
attr title "Packet lifetime for user 2"
vector 3 RadioSch2.sink userLifetime3:vector ETV
attr recordingmode vector
attr source lifetime:user3
attr title "Packet lifetime for user 3"
vector 4 RadioSch2.sink userLifetime4:vector ETV
attr recordingmode vector
attr source lifetime:user4
attr title "Packet lifetime for user 4"
vector 5 RadioSch2.sink userLifetime5:vector ETV
attr recordingmode vector
attr source lifetime:user5
attr title "Packet lifetime for user 5"
vector 6 RadioSch2.sink userLifetime6:vector ETV
attr recordingmode vector
attr source lifetime:user6
attr title "Packet lifetime for user 6"
vector 7 RadioSch2.sink userLifetime7:vector ETV
attr recordingmode vector
attr source lifetime:user7
attr title "Packet lifetime for user 7"
vector 8 RadioSch2.flc "delay vector" ETV
vector 9 RadioSch2.flc "result nescalat" ETV
vector 10 RadioSch2.flc "res scalat" ETV
vector 11 RadioSch2.flc "weight vector" ETV
0	188	1	1
0	189	1	1
0	190	1	1
0	191	1	1
0	192	1	1
0	221	3	3
0	222	3	3
0	223	3	3
0	224	3	3
0	225	3	3
0	381	7	0.936194250927
0	382	7	0.936194250927
0	383	7	0.936194250927
0	384	7	0.936194250927
0	385	7	0.936194250927
0	424	8	1.936194250927
0	425	8	1.936194250927
0	426	8	1.936194250927
0	427	8	1.936194250927
0	428	8	1.936194250927
0	647	14	0.49233576412
0	648	14	0.49233576412
0	649	14	0.49233576412
0	650	14	0.49233576412
0	651	14	0.49233576412
0	652	14	0.49233576412
0	653	14	0.49233576412
0	654	14	0.49233576412
0	655	14	0.49233576412
0	656	14	0.49233576412
0	818	17	1.06676516723
0	819	17	1.06676516723
0	820	17	1.06676516723
0	821	17	1.06676516723
0	822	17	1.06676516723
0	823	17	1.06676516723
0	824	17	1.06676516723
0	825	17	1.06676516723
0	826	17	1.06676516723
0	827	17	1.06676516723
0	983	21	0.084802750307
0	984	21	0.084802750307
0	985	21	0.084802750307
0	986	21	0.084802750307
0	987	21	0.084802750307
0	988	21	0.084802750307
0	989	21	0.084802750307
0	990	21	0.084802750307
0	991	21	0.084802750307
0	992	21	0.084802750307
0	1467	35	0.306751212974
0	1468	35	0.306751212974
0	1469	35	0.306751212974
0	1470	35	0.306751212974
0	1471	35	0.306751212974
0	1472	35	0.306751212974
0	1473	35	0.306751212974
0	1474	35	0.306751212974
0	1475	35	0.306751212974
0	1476	35	0.306751212974
0	2453	64	0.009822686179
0	2454	64	0.009822686179
0	2455	64	0.009822686179
0	2456	64	0.009822686179
0	2457	64	0.009822686179
0	2458	64	0.009822686179
0	2459	64	0.009822686179
0	2460	64	0.009822686179
0	2461	64	0.009822686179
0	2462	64	0.009822686179
0	2558	66	0.902942478238
0	2559	66	0.902942478238
0	2560	66	0.902942478238
0	2561	66	0.902942478238
0	2562	66	0.902942478238
0	2563	66	0.902942478238
0	2564	66	0.902942478238
0	2565	66	0.902942478238
0	2566	66	0.902942478238
0	2567	66	0.902942478238
0	2908	73	0.578135323451
0	2909	73	0.578135323451
0	2910	73	0.578135323451
0	2911	73	0.578135323451
0	2912	73	0.578135323451
0	2913	73	0.578135323451
0	2914	73	0.578135323451
0	2915	73	0.578135323451
0	2916	73	0.578135323451
0	2917	73	0.578135323451
0	3089	77	0.023879500073
0	3090	77	0.023879500073
0	3091	77	0.023879500073
0	3092	77	0.023879500073
0	3093	77	0.023879500073
0	3094	77	0.023879500073
0	3095	77	0.023879500073
0	3096	77	0.023879500073
0	3097	77	0.023879500073
0	3098	77	0.023879500073
0	3132	78	0.227222541786
0	3133	78	0.227222541786
0	3134	78	0.227222541786
0	3135	78	0.227222541786
0	3136	78	0.227222541786
0	3137	78	0.227222541786
0	3138	78	0.227222541786
0	3139	78	0.227222541786
0	3140	78	0.227222541786
0	3141	78	0.227222541786
0	3174	79	0.753963185852
0	3175	79	0.753963185852
0	3176	79	0.753963185852
0	3177	79	0.753963185852
0	3178	79	0.753963185852
0	3179	79	0.753963185852
0	3180	79	0.753963185852
0	3181	79	0.753963185852
0	3182	79	0.753963185852
0	3183	79	0.753963185852
0	4175	105	0.08566844715
0	4176	105	0.08566844715
0	4177	105	0.08566844715
0	4178	105	0.08566844715
0	4179	105	0.08566844715
0	4180	105	0.08566844715
0	4181	105	0.08566844715
0	4182	105	0.08566844715
0	4183	105	0.08566844715
0	4184	105	0.08566844715
0	4367	109	0.008985193182
0	4368	109	0.008985193182
0	4369	109	0.008985193182
0	4370	109	0.008985193182
0	4371	109	0.008985193182
0	4410	110	1.008985193182
0	4411	110	1.008985193182
0	4412	110	1.008985193182
0	4413	110	1.008985193182
0	4414	110	1.008985193182
0	4474	111	0.68991886064
0	4475	111	0.68991886064
0	4476	111	0.68991886064
0	4477	111	0.68991886064
0	4478	111	0.68991886064
0	4538	112	1.68991886064
0	4539	112	1.68991886064
0	4540	112	1.68991886064
0	4541	112	1.68991886064
0	4542	112	1.68991886064
0	4788	119	0.132446087053
0	4789	119	0.132446087053
0	4790	119	0.132446087053
0	4791	119	0.132446087053
0	4792	119	0.132446087053
0	4793	119	0.132446087053
0	4794	119	0.132446087053
0	4795	119	0.132446087053
0	4796	119	0.132446087053
0	4797	119	0.132446087053
0	5172	132	0.025157266355
0	5173	132	0.025157266355
0	5174	132	0.025157266355
0	5175	132	0.025157266355
0	5176	132	0.025157266355
0	5177	132	0.025157266355
0	5178	132	0.025157266355
0	5179	132	0.025157266355
0	5180	132	0.025157266355
0	5181	132	0.025157266355
0	5288	137	0.207354627149
0	5289	137	0.207354627149
0	5290	137	0.207354627149
0	5291	137	0.207354627149
0	5292	137	0.207354627149
0	5293	137	0.207354627149
0	5294	137	0.207354627149
0	5295	137	0.207354627149
0	5296	137	0.207354627149
0	5297	137	0.207354627149
0	5324	138	0.770578044873
0	5325	138	0.770578044873
0	5326	138	0.770578044873
0	5327	138	0.770578044873
0	5328	138	0.770578044873
0	5329	138	0.770578044873
0	5330	138	0.770578044873
0	5331	138	0.770578044873
0	5332	138	0.770578044873
0	5333	138	0.770578044873
0	5631	145	0.69645616372
0	5632	145	0.69645616372
0	5633	145	0.69645616372
0	5634	145	0.69645616372
0	5635	145	0.69645616372
0	5636	145	0.69645616372
0	5637	145	0.69645616372
0	5638	145	0.69645616372
0	5639	145	0.69645616372
0	5640	145	0.69645616372
0	5706	146	0.720785570873
0	5707	146	0.720785570873
0	5708	146	0.720785570873
0	5709	146	0.720785570873
0	5710	146	0.720785570873
0	5723	147	1.720785570873
0	5724	147	1.720785570873
0	5725	147	1.720785570873
0	5726	147	1.720785570873
0	5727	147	1.720785570873
0	5754	148	0.045158223206
0	5755	148	0.045158223206
0	5756	148	0.045158223206
0	5757	148	0.045158223206
0	5758	148	0.045158223206
0	5759	148	0.045158223206
0	5760	148	0.045158223206
0	5761	148	0.045158223206
0	5762	148	0.045158223206
0	5763	148	0.045158223206
0	5855	150	1.082197183775
0	5856	150	1.082197183775
0	5857	150	1.082197183775
0	5858	150	1.082197183775
0	5859	150	1.082197183775
0	5860	150	1.082197183775
0	5861	150	1.082197183775
0	5862	150	1.082197183775
0	5863	150	1.082197183775
0	5864	150	1.082197183775
0	5933	152	0.166380430542
0	5934	152	0.166380430542
0	5935	152	0.166380430542
0	5936	152	0.166380430542
0	5937	152	0.166380430542
0	5938	152	0.166380430542
0	5939	152	0.166380430542
0	5940	152	0.166380430542
0	5941	152	0.166380430542
0	5942	152	0.166380430542
0	6557	171	0.088957321321
0	6558	171	0.088957321321
0	6559	171	0.088957321321
0	6560	171	0.088957321321
0	6561	171	0.088957321321
0	6562	171	0.088957321321
0	6563	171	0.088957321321
0	6564	171	0.088957321321
0	6565	171	0.088957321321
0	6566	171	0.088957321321
0	6764	174	0.166593785332
0	6765	174	0.166593785332
0	6766	174	0.166593785332
0	6767	174	0.166593785332
0	6768	174	0.166593785332
0	6769	174	0.166593785332
0	6770	174	0.166593785332
0	6771	174	0.166593785332
0	6772	174	0.166593785332
0	6773	174	0.166593785332
0	7286	188	0.137774954954
0	7287	188	0.137774954954
0	7288	188	0.137774954954
0	7289	188	0.137774954954
0	7290	188	0.137774954954
0	7291	188	0.137774954954
0	7292	188	0.137774954954
0	7293	188	0.137774954954
0	7294	188	0.137774954954
0	7295	188	0.137774954954
0	7457	191	0.739895634157
0	7458	191	0.739895634157
0	7459	191	0.739895634157
0	7460	191	0.739895634157
0	7461	191	0.739895634157
0	7462	191	0.739895634157
0	7463	191	0.739895634157
0	7464	191	0.739895634157
0	7465	191	0.739895634157
0	7466	191	0.739895634157
0	7625	195	0.413006845736
0	7626	195	0.413006845736
0	7627	195	0.413006845736
0	7628	195	0.413006845736
0	7629	195	0.413006845736
0	7630	195	0.413006845736
0	7631	195	0.413006845736
0	7632	195	0.413006845736
0	7633	195	0.413006845736
0	7634	195	0.413006845736
0	7816	199	0.570387366972
0	7817	199	0.570387366972
0	7818	199	0.570387366972
0	7819	199	0.570387366972
0	7820	199	0.570387366972
0	7821	199	0.570387366972
0	7822	199	0.570387366972
0	7823	199	0.570387366972
0	7824	199	0.570387366972
0	7825	199	0.570387366972
0	8069	207	0.8091779954
0	8070	207	0.8091779954
0	8071	207	0.8091779954
0	8072	207	0.8091779954
0	8073	207	0.8091779954
0	8074	207	0.8091779954
0	8075	207	0.8091779954
0	8076	207	0.8091779954
0	8077	207	0.8091779954
0	8078	207	0.8091779954
0	8478	221	0.535197958393
0	8479	221	0.535197958393
0	8480	221	0.535197958393
0	8481	221	0.535197958393
0	8482	221	0.535197958393
0	8483	221	0.535197958393
0	8484	221	0.535197958393
0	8485	221	0.535197958393
0	8486	221	0.535197958393
0	8487	221	0.535197958393
0	8550	223	0.345403855002
0	8551	223	0.345403855002
0	8552	223	0.345403855002
0	8553	223	0.345403855002
0	8554	223	0.345403855002
0	8555	223	0.345403855002
0	8556	223	0.345403855002
0	8557	223	0.345403855002
0	8558	223	0.345403855002
0	8559	223	0.345403855002
0	8647	226	0.482631722379
0	8648	226	0.482631722379
0	8649	226	0.482631722379
0	8650	226	0.482631722379
0	8651	226	0.482631722379
0	8652	226	0.482631722379
0	8653	226	0.482631722379
0	8654	226	0.482631722379
0	8655	226	0.482631722379
0	8656	226	0.482631722379
0	8852	235	0.496856989848
0	8853	235	0.496856989848
0	8854	235	0.496856989848
0	8855	235	0.496856989848
0	8856	235	0.496856989848
0	8857	235	0.496856989848
0	8858	235	0.496856989848
0	8859	235	0.496856989848
0	8860	235	0.496856989848
0	8861	235	0.496856989848
0	9138	241	0.692150160927
0	9139	241	0.692150160927
0	9140	241	0.692150160927
0	9141	241	0.692150160927
0	9142	241	0.692150160927
0	9191	242	1.692150160927
0	9192	242	1.692150160927
0	9193	242	1.692150160927
0	9194	242	1.692150160927
0	9195	242	1.692150160927
0	9460	248	0.588128214972
0	9461	248	0.588128214972
0	9462	248	0.588128214972
0	9463	248	0.588128214972
0	9464	248	0.588128214972
0	9465	248	0.588128214972
0	9466	248	0.588128214972
0	9467	248	0.588128214972
0	9468	248	0.588128214972
0	9469	248	0.588128214972
0	9813	255	0.255746837669
0	9814	255	0.255746837669
0	9815	255	0.255746837669
0	9816	255	0.255746837669
0	9817	255	0.255746837669
0	9818	255	0.255746837669
0	9819	255	0.255746837669
0	9820	255	0.255746837669
0	9821	255	0.255746837669
0	9822	255	0.255746837669
0	10133	262	0.446382431532
0	10134	262	0.446382431532
0	10135	262	0.446382431532
0	10136	262	0.446382431532
0	10137	262	0.446382431532
0	10138	262	0.446382431532
0	10139	262	0.446382431532
0	10140	262	0.446382431532
0	10141	262	0.446382431532
0	10142	262	0.446382431532
0	10240	264	0.540999612654
0	10241	264	0.540999612654
0	10242	264	0.540999612654
0	10243	264	0.540999612654
0	10244	264	0.540999612654
0	10245	264	0.540999612654
0	10246	264	0.540999612654
0	10247	264	0.540999612654
0	10248	264	0.540999612654
0	10249	264	0.540999612654
0	10441	267	0.05015859202
0	10442	267	0.05015859202
0	10443	267	0.05015859202
0	10444	267	0.05015859202
0	10445	267	0.05015859202
0	10517	269	2.05015859202
0	10518	269	2.05015859202
0	10519	269	2.05015859202
0	10520	269	2.05015859202
0	10521	269	2.05015859202
0	10850	280	0.548081807816
0	10851	280	0.548081807816
0	10852	280	0.548081807816
0	10853	280	0.548081807816
0	10854	280	0.548081807816
0	10855	280	0.548081807816
0	10856	280	0.548081807816
0	10857	280	0.548081807816
0	10858	280	0.548081807816
0	10859	280	0.548081807816
0	11258	294	0.531070111988
0	11259	294	0.531070111988
0	11260	294	0.531070111988
0	11261	294	0.531070111988
0	11262	294	0.531070111988
0	11333	296	2.531070111988
0	11334	296	2.531070111988
0	11335	296	2.531070111988
0	11336	296	2.531070111988
0	11337	296	2.531070111988
0	11769	308	0.17732621419
0	11770	308	0.17732621419
0	11771	308	0.17732621419
0	11772	308	0.17732621419
0	11773	308	0.17732621419
0	11774	308	0.17732621419
0	11775	308	0.17732621419
0	11776	308	0.17732621419
0	11777	308	0.17732621419
0	11778	308	0.17732621419
0	12177	318	0.422398947048
0	12178	318	0.422398947048
0	12179	318	0.422398947048
0	12180	318	0.422398947048
0	12181	318	0.422398947048
0	12182	318	0.422398947048
0	12183	318	0.422398947048
0	12184	318	0.422398947048
0	12185	318	0.422398947048
0	12186	318	0.422398947048
0	13000	340	0.444404645315
0	13001	340	0.444404645315
0	13002	340	0.444404645315
0	13003	340	0.444404645315
0	13004	340	0.444404645315
0	13005	340	0.444404645315
0	13006	340	0.444404645315
0	13007	340	0.444404645315
0	13008	340	0.444404645315
0	13009	340	0.444404645315
0	13010	340	0.197876609922
0	13011	340	0.197876609922
0	13012	340	0.197876609922
0	13013	340	0.197876609922
0	13014	340	0.197876609922
0	13028	341	1.197876609922
0	13029	341	1.197876609922
0	13030	341	1.197876609922
0	13031	341	1.197876609922
0	13032	341	1.197876609922
0	13400	352	0.534400600266
0	13401	352	0.534400600266
0	13402	352	0.534400600266
0	13403	352	0.534400600266
0	13404	352	0.534400600266
0	13405	352	0.534400600266
0	13406	352	0.534400600266
0	13407	352	0.534400600266
0	13408	352	0.534400600266
0	13409	352	0.534400600266
0	14168	373	0.800318650453
0	14169	373	0.800318650453
0	14170	373	0.800318650453
0	14171	373	0.800318650453
0	14172	373	0.800318650453
0	14173	373	0.800318650453
0	14174	373	0.800318650453
0	14175	373	0.800318650453
0	14176	373	0.800318650453
0	14177	373	0.800318650453
0	15110	399	0.023338227316
0	15111	399	0.023338227316
0	15112	399	0.023338227316
0	15113	399	0.023338227316
0	15114	399	0.023338227316
0	15115	399	0.023338227316
0	15116	399	0.023338227316
0	15117	399	0.023338227316
0	15118	399	0.023338227316
0	15119	399	0.023338227316
0	15341	405	0.16337783801
0	15342	405	0.16337783801
0	15343	405	0.16337783801
0	15344	405	0.16337783801
0	15345	405	0.16337783801
0	15346	405	0.16337783801
0	15347	405	0.16337783801
0	15348	405	0.16337783801
0	15349	405	0.16337783801
0	15350	405	0.16337783801
0	15445	408	1.300589098635
0	15446	408	1.300589098635
0	15447	408	1.300589098635
0	15448	408	1.300589098635
0	15449	408	1.300589098635
0	15450	408	1.300589098635
0	15451	408	1.300589098635
0	15452	408	1.300589098635
0	15453	408	1.300589098635
0	15454	408	1.300589098635
0	15762	415	0.011793413954
0	15763	415	0.011793413954
0	15764	415	0.011793413954
0	15765	415	0.011793413954
0	15766	415	0.011793413954
0	15767	415	0.011793413954
0	15768	415	0.011793413954
0	15769	415	0.011793413954
0	15770	415	0.011793413954
0	15771	415	0.011793413954
0	15886	419	0.326929509271
0	15887	419	0.326929509271
0	15888	419	0.326929509271
0	15889	419	0.326929509271
0	15890	419	0.326929509271
0	15891	419	0.326929509271
0	15892	419	0.326929509271
0	15893	419	0.326929509271
0	15894	419	0.326929509271
0	15895	419	0.326929509271
0	15928	422	0.335896913556
0	15929	422	0.335896913556
0	15930	422	0.335896913556
0	15931	422	0.335896913556
0	15932	422	0.335896913556
0	15933	422	0.335896913556
0	15934	422	0.335896913556
0	15935	422	0.335896913556
0	15936	422	0.335896913556
0	15937	422	0.335896913556
0	16438	436	0.788138156725
0	16439	436	0.788138156725
0	16440	436	0.788138156725
0	16441	436	0.788138156725
0	16442	436	0.788138156725
0	16443	436	0.788138156725
0	16444	436	0.788138156725
0	16445	436	0.788138156725
0	16446	436	0.788138156725
0	16447	436	0.788138156725
0	16788	445	0.92632266396
0	16789	445	0.92632266396
0	16790	445	0.92632266396
0	16791	445	0.92632266396
0	16792	445	0.92632266396
0	16793	445	0.92632266396
0	16794	445	0.92632266396
0	16795	445	0.92632266396
0	16796	445	0.92632266396
0	16797	445	0.92632266396
0	16894	447	0.058289509511
0	16895	447	0.058289509511
0	16896	447	0.058289509511
0	16897	447	0.058289509511
0	16898	447	0.058289509511
0	16905	448	1.058289509511
0	16906	448	1.058289509511
0	16907	448	1.058289509511
0	16908	448	1.058289509511
0	16909	448	1.058289509511
0	17048	452	0.195900133565
0	17049	452	0.195900133565
0	17050	452	0.195900133565
0	17051	452	0.195900133565
0	17052	452	0.195900133565
0	17091	453	1.195900133565
0	17092	453	1.195900133565
0	17093	453	1.195900133565
0	17094	453	1.195900133565
0	17095	453	1.195900133565
0	17144	454	0.924474295601
0	17145	454	0.924474295601
0	17146	454	0.924474295601
0	17147	454	0.924474295601
0	17148	454	0.924474295601
0	17149	454	0.924474295601
0	17150	454	0.924474295601
0	17151	454	0.924474295601
0	17152	454	0.924474295601
0	17153	454	0.924474295601
0	17599	464	0.936113395331
0	17600	464	0.936113395331
0	17601	464	0.936113395331
0	17602	464	0.936113395331
0	17603	464	0.936113395331
0	17604	464	0.936113395331
0	17605	464	0.936113395331
0	17606	464	0.936113395331
0	17607	464	0.936113395331
0	17608	464	0.936113395331
0	17912	472	0.376414351156
0	17913	472	0.376414351156
0	17914	472	0.376414351156
0	17915	472	0.376414351156
0	17916	472	0.376414351156
0	17917	472	0.376414351156
0	17918	472	0.376414351156
0	17919	472	0.376414351156
0	17920	472	0.376414351156
0	17921	472	0.376414351156
0	18622	486	0.393455090664
0	18623	486	0.393455090664
0	18624	486	0.393455090664
0	18625	486	0.393455090664
0	18626	486	0.393455090664
0	18627	486	0.393455090664
0	18628	486	0.393455090664
0	18629	486	0.393455090664
0	18630	486	0.393455090664
0	18631	486	0.393455090664
0	18851	492	0.272374994153
0	18852	492	0.272374994153
0	18853	492	0.272374994153
0	18854	492	0.272374994153
0	18855	492	0.272374994153
0	18856	492	0.272374994153
0	18857	492	0.272374994153
0	18858	492	0.272374994153
0	18859	492	0.272374994153
0	18860	492	0.272374994153
0	18992	495	0.695958119148
0	18993	495	0.695958119148
0	18994	495	0.695958119148
0	18995	495	0.695958119148
0	18996	495	0.695958119148
0	19140	496	1.695958119148
0	19141	496	1.695958119148
0	19142	496	1.695958119148
0	19143	496	1.695958119148
0	19144	496	1.695958119148
0	19162	497	1.890722506922
0	19163	497	1.890722506922
0	19164	497	1.890722506922
0	19165	497	1.890722506922
0	19166	497	1.890722506922
0	19237	499	3.890722506922
0	19238	499	3.890722506922
0	19239	499	3.890722506922
0	19240	499	3.890722506922
0	19241	499	3.890722506922
0	19795	516	0.680752864861
0	19796	516	0.680752864861
0	19797	516	0.680752864861
0	19798	516	0.680752864861
0	19799	516	0.680752864861
0	19800	516	0.680752864861
0	19801	516	0.680752864861
0	19802	516	0.680752864861
0	19803	516	0.680752864861
0	19804	516	0.680752864861
0	19889	518	0.803298981335
0	19890	518	0.803298981335
0	19891	518	0.803298981335
0	19892	518	0.803298981335
0	19893	518	0.803298981335
0	19894	518	0.803298981335
0	19895	518	0.803298981335
0	19896	518	0.803298981335
0	19897	518	0.803298981335
0	19898	518	0.803298981335
0	20013	522	0.176409163282
0	20014	522	0.176409163282
0	20015	522	0.176409163282
0	20016	522	0.176409163282
0	20017	522	0.176409163282
0	20018	522	0.176409163282
0	20019	522	0.176409163282
0	20020	522	0.176409163282
0	20021	522	0.176409163282
0	20022	522	0.176409163282
0	20094	527	0.012203433339
0	20095	527	0.012203433339
0	20096	527	0.012203433339
0	20097	527	0.012203433339
0	20098	527	0.012203433339
0	20099	527	0.012203433339
0	20100	527	0.012203433339
0	20101	527	0.012203433339
0	20102	527	0.012203433339
0	20103	527	0.012203433339
0	20289	537	0.433254895658
0	20290	537	0.433254895658
0	20291	537	0.433254895658
0	20292	537	0.433254895658
0	20293	537	0.433254895658
0	20294	537	0.433254895658
0	20295	537	0.433254895658
0	20296	537	0.433254895658
0	20297	537	0.433254895658
0	20298	537	0.433254895658
0	20838	553	0.633167557753
0	20839	553	0.633167557753
0	20840	553	0.633167557753
0	20841	553	0.633167557753
0	20842	553	0.633167557753
0	20843	553	0.633167557753
0	20844	553	0.633167557753
0	20845	553	0.633167557753
0	20846	553	0.633167557753
0	20847	553	0.633167557753
0	21907	585	0.619000500628
0	21908	585	0.619000500628
0	21909	585	0.619000500628
0	21910	585	0.619000500628
0	21911	585	0.619000500628
0	21912	585	0.619000500628
0	21913	585	0.619000500628
0	21914	585	0.619000500628
0	21915	585	0.619000500628
0	21916	585	0.619000500628
0	22324	596	0.286202372326
0	22325	596	0.286202372326
0	22326	596	0.286202372326
0	22327	596	0.286202372326
0	22328	596	0.286202372326
0	22329	596	0.286202372326
0	22330	596	0.286202372326
0	22331	596	0.286202372326
0	22332	596	0.286202372326
0	22333	596	0.286202372326
0	22492	599	0.288088763772
0	22493	599	0.288088763772
0	22494	599	0.288088763772
0	22495	599	0.288088763772
0	22496	599	0.288088763772
0	22497	599	0.288088763772
0	22498	599	0.288088763772
0	22499	599	0.288088763772
0	22500	599	0.288088763772
0	22501	599	0.288088763772
0	22502	599	0.181067116211
0	22503	599	0.181067116211
0	22504	599	0.181067116211
0	22505	599	0.181067116211
0	22506	599	0.181067116211
0	22545	600	1.181067116211
0	22546	600	1.181067116211
0	22547	600	1.181067116211
0	22548	600	1.181067116211
0	22549	600	1.181067116211
0	22588	601	2.093499495575
0	22589	601	2.093499495575
0	22590	601	2.093499495575
0	22591	601	2.093499495575
0	22592	601	2.093499495575
0	22598	602	3.093499495575
0	22599	602	3.093499495575
0	22600	602	3.093499495575
0	22601	602	3.093499495575
0	22602	602	3.093499495575
0	22793	605	0.284557139652
0	22794	605	0.284557139652
0	22795	605	0.284557139652
0	22796	605	0.284557139652
0	22797	605	0.284557139652
0	22798	605	0.284557139652
0	22799	605	0.284557139652
0	22800	605	0.284557139652
0	22801	605	0.284557139652
0	22802	605	0.284557139652
0	23074	614	0.664528434094
0	23075	614	0.664528434094
0	23076	614	0.664528434094
0	23077	614	0.664528434094
0	23078	614	0.664528434094
0	23079	614	0.664528434094
0	23080	614	0.664528434094
0	23081	614	0.664528434094
0	23082	614	0.664528434094
0	23083	614	0.664528434094
0	23354	620	0.454864960598
0	23355	620	0.454864960598
0	23356	620	0.454864960598
0	23357	620	0.454864960598
0	23358	620	0.454864960598
0	23468	622	2.454864960598
0	23469	622	2.454864960598
0	23470	622	2.454864960598
0	23471	622	2.454864960598
0	23472	622	2.454864960598
0	23473	622	0.200374497756
0	23474	622	0.200374497756
0	23475	622	0.200374497756
0	23476	622	0.200374497756
0	23477	622	0.200374497756
0	23478	622	0.200374497756
0	23479	622	0.200374497756
0	23480	622	0.200374497756
0	23481	622	0.200374497756
0	23482	622	0.200374497756
0	23729	627	0.100924044529
0	23730	627	0.100924044529
0	23731	627	0.100924044529
0	23732	627	0.100924044529
0	23733	627	0.100924044529
0	23783	629	2.100924044529
0	23784	629	2.100924044529
0	23785	629	2.100924044529
0	23786	629	2.100924044529
0	23787	629	2.100924044529
0	24210	636	0.038095462929
0	24211	636	0.038095462929
0	24212	636	0.038095462929
0	24213	636	0.038095462929
0	24214	636	0.038095462929
0	24215	636	0.038095462929
0	24216	636	0.038095462929
0	24217	636	0.038095462929
0	24218	636	0.038095462929
0	24219	636	0.038095462929
0	24705	648	0.54693179339
0	24706	648	0.54693179339
0	24707	648	0.54693179339
0	24708	648	0.54693179339
0	24709	648	0.54693179339
0	24710	648	0.54693179339
0	24711	648	0.54693179339
0	24712	648	0.54693179339
0	24713	648	0.54693179339
0	24714	648	0.54693179339
0	24874	651	0.016341107371
0	24875	651	0.016341107371
0	24876	651	0.016341107371
0	24877	651	0.016341107371
0	24878	651	0.016341107371
0	24879	651	0.016341107371
0	24880	651	0.016341107371
0	24881	651	0.016341107371
0	24882	651	0.016341107371
0	24883	651	0.016341107371
0	25066	654	2.668622635024
0	25067	654	2.668622635024
0	25068	654	2.668622635024
0	25069	654	2.668622635024
0	25070	654	2.668622635024
0	25071	654	2.668622635024
0	25072	654	2.668622635024
0	25073	654	2.668622635024
0	25074	654	2.668622635024
0	25075	654	2.668622635024
0	25442	664	0.414010451513
0	25443	664	0.414010451513
0	25444	664	0.414010451513
0	25445	664	0.414010451513
0	25446	664	0.414010451513
0	25447	664	0.414010451513
0	25448	664	0.414010451513
0	25449	664	0.414010451513
0	25450	664	0.414010451513
0	25451	664	0.414010451513
0	25800	672	0.51119068692
0	25801	672	0.51119068692
0	25802	672	0.51119068692
0	25803	672	0.51119068692
0	25804	672	0.51119068692
0	25805	672	0.51119068692
0	25806	672	0.51119068692
0	25807	672	0.51119068692
0	25808	672	0.51119068692
0	25809	672	0.51119068692
0	26281	680	0.52422607773
0	26282	680	0.52422607773
0	26283	680	0.52422607773
0	26284	680	0.52422607773
0	26285	680	0.52422607773
0	26286	680	0.52422607773
0	26287	680	0.52422607773
0	26288	680	0.52422607773
0	26289	680	0.52422607773
0	26290	680	0.52422607773
0	26367	682	1.786721526811
0	26368	682	1.786721526811
0	26369	682	1.786721526811
0	26370	682	1.786721526811
0	26371	682	1.786721526811
0	26372	682	1.786721526811
0	26373	682	1.786721526811
0	26374	682	1.786721526811
0	26375	682	1.786721526811
0	26376	682	1.786721526811
0	26815	697	0.501603885536
0	26816	697	0.501603885536
0	26817	697	0.501603885536
0	26818	697	0.501603885536
0	26819	697	0.501603885536
0	26820	697	0.501603885536
0	26821	697	0.501603885536
0	26822	697	0.501603885536
0	26823	697	0.501603885536
0	26824	697	0.501603885536
0	27178	706	0.577690019273
0	27179	706	0.577690019273
0	27180	706	0.577690019273
0	27181	706	0.577690019273
0	27182	706	0.577690019273
0	27183	706	0.577690019273
0	27184	706	0.577690019273
0	27185	706	0.577690019273
0	27186	706	0.577690019273
0	27187	706	0.577690019273
0	27679	717	0.480088407268
0	27680	717	0.480088407268
0	27681	717	0.480088407268
0	27682	717	0.480088407268
0	27683	717	0.480088407268
0	27684	717	0.480088407268
0	27685	717	0.480088407268
0	27686	717	0.480088407268
0	27687	717	0.480088407268
0	27688	717	0.480088407268
0	27859	722	0.824411749854
0	27860	722	0.824411749854
0	27861	722	0.824411749854
0	27862	722	0.824411749854
0	27863	722	0.824411749854
0	27864	722	0.824411749854
0	27865	722	0.824411749854
0	27866	722	0.824411749854
0	27867	722	0.824411749854
0	27868	722	0.824411749854
0	28261	737	0.678206379614
0	28262	737	0.678206379614
0	28263	737	0.678206379614
0	28264	737	0.678206379614
0	28265	737	0.678206379614
0	28266	737	0.678206379614
0	28267	737	0.678206379614
0	28268	737	0.678206379614
0	28269	737	0.678206379614
0	28270	737	0.678206379614
0	29104	760	0.959885180938
0	29105	760	0.959885180938
0	29106	760	0.959885180938
0	29107	760	0.959885180938
0	29108	760	0.959885180938
0	29109	760	0.959885180938
0	29110	760	0.959885180938
0	29111	760	0.959885180938
0	29112	760	0.959885180938
0	29113	760	0.959885180938
0	30044	780	0.775593659184
0	30045	780	0.775593659184
0	30046	780	0.775593659184
0	30047	780	0.775593659184
0	30048	780	0.775593659184
0	30049	780	0.775593659184
0	30050	780	0.775593659184
0	30051	780	0.775593659184
0	30052	780	0.775593659184
0	30053	780	0.775593659184
0	30465	787	1.163312745755
0	30466	787	1.163312745755
0	30467	787	1.163312745755
0	30468	787	1.163312745755
0	30469	787	1.163312745755
0	30470	787	1.163312745755
0	30471	787	1.163312745755
0	30472	787	1.163312745755
0	30473	787	1.163312745755
0	30474	787	1.163312745755
0	30613	790	0.590578823676
0	30614	790	0.590578823676
0	30615	790	0.590578823676
0	30616	790	0.590578823676
0	30617	790	0.590578823676
0	30618	790	0.590578823676
0	30619	790	0.590578823676
0	30620	790	0.590578823676
0	30621	790	0.590578823676
0	30622	790	0.590578823676
0	30745	792	1.235327335247
0	30746	792	1.235327335247
0	30747	792	1.235327335247
0	30748	792	1.235327335247
0	30749	792	1.235327335247
0	30750	792	1.235327335247
0	30751	792	1.235327335247
0	30752	792	1.235327335247
0	30753	792	1.235327335247
0	30754	792	1.235327335247
0	30932	799	0.477479115765
0	30933	799	0.477479115765
0	30934	799	0.477479115765
0	30935	799	0.477479115765
0	30936	799	0.477479115765
0	30937	799	0.477479115765
0	30938	799	0.477479115765
0	30939	799	0.477479115765
0	30940	799	0.477479115765
0	30941	799	0.477479115765
0	31043	803	0.980123477766
0	31044	803	0.980123477766
0	31045	803	0.980123477766
0	31046	803	0.980123477766
0	31047	803	0.980123477766
0	31048	803	0.980123477766
0	31049	803	0.980123477766
0	31050	803	0.980123477766
0	31051	803	0.980123477766
0	31052	803	0.980123477766
0	31331	814	0.331065415199
0	31332	814	0.331065415199
0	31333	814	0.331065415199
0	31334	814	0.331065415199
0	31335	814	0.331065415199
0	31336	814	0.331065415199
0	31337	814	0.331065415199
0	31338	814	0.331065415199
0	31339	814	0.331065415199
0	31340	814	0.331065415199
0	31522	817	1.179090466945
0	31523	817	1.179090466945
0	31524	817	1.179090466945
0	31525	817	1.179090466945
0	31526	817	1.179090466945
0	31555	819	3.179090466945
0	31556	819	3.179090466945
0	31557	819	3.179090466945
0	31558	819	3.179090466945
0	31559	819	3.179090466945
0	31657	822	0.629547053362
0	31658	822	0.629547053362
0	31659	822	0.629547053362
0	31660	822	0.629547053362
0	31661	822	0.629547053362
0	31743	824	2.629547053362
0	31744	824	2.629547053362
0	31745	824	2.629547053362
0	31746	824	2.629547053362
0	31747	824	2.629547053362
0	31891	828	0.465892233303
0	31892	828	0.465892233303
0	31893	828	0.465892233303
0	31894	828	0.465892233303
0	31895	828	0.465892233303
0	31896	828	0.465892233303
0	31897	828	0.465892233303
0	31898	828	0.465892233303
0	31899	828	0.465892233303
0	31900	828	0.465892233303